
FAST Summary File

Predictions were generated on 15-Mar-2024 at 10:03:02 using OpenFAST, compiled as a DLL S-Function for Simulink as a 64-bit application using single precision at commit v3.5.2
  compiled with
    NWTC Subroutine Library
    ElastoDyn
    BeamDyn (unknown version, unknown date) [not called]
    InflowWind
    AeroDyn14 (unknown version, unknown date) [not called]
    AeroDyn
    ServoDyn
    HydroDyn
    SubDyn (unknown version, unknown date) [not called]
    ExtPtfm_MCKF (unknown version, unknown date) [not called]
    MAP (unknown version, unknown date) [not called]
    FEAMooring (unknown version, unknown date) [not called]
    MoorDyn (v2.0.0, 2023-09-18)
    OrcaFlexInterface (unknown version, unknown date) [not called]
    IceFloe (unknown version, unknown date) [not called]
    IceDyn (unknown version, unknown date) [not called]


Modeling a floating offshore turbine
Description from the FAST input file: 
  FAST Certification Test #25: NREL 5.0 MW Baseline Wind Turbine with OC4-DeepCwind semi configuration, for use in offshore analysis

Interpolation order for input/output time histories: 2 (quadratic)
Number of correction iterations:  0
Number of rows in Jacobian matrix used for coupling ElastoDyn to HydroDyn:     12


   Requested Time Steps  
  -------------------------------------------------
  Component          Time Step (s)    Subcycles (-)
  -----------------  ---------------  -------------
  FAST (glue code)     1.2500000E-02
  InflowWind           1.2500000E-02         1
  ElastoDyn            1.2500000E-02         1
  AeroDyn              1.2500000E-02         1
  ServoDyn             1.2500000E-02         1
  HydroDyn             1.2500000E-02         1
  MoorDyn              1.2500000E-02         1
  FAST output files    1.2500000E-02         1


   Requested Channels in FAST Output File(s)  
  --------------------------------------------
  Number  Name                  Units                 Generated by
  ------  --------------------  --------------------  ------------
       1  Time                  (s)                   OpenFAST
       2  Wind1VelX             (m/s)                 InflowWind
       3  Wind1VelY             (m/s)                 InflowWind
       4  Wind1VelZ             (m/s)                 InflowWind
       5  Azimuth               (deg)                 ElastoDyn
       6  RotSpeed              (rpm)                 ElastoDyn
       7  GenSpeed              (rpm)                 ElastoDyn
       8  OoPDefl1              (m)                   ElastoDyn
       9  IPDefl1               (m)                   ElastoDyn
      10  TwstDefl1             (deg)                 ElastoDyn
      11  BldPitch1             (deg)                 ElastoDyn
      12  BldPitch2             (deg)                 ElastoDyn
      13  BldPitch3             (deg)                 ElastoDyn
      14  YawBrTAxp             (m/s^2)               ElastoDyn
      15  YawBrRAxp             (deg/s^2)             ElastoDyn
      16  RotTorq               (kN-m)                ElastoDyn
      17  TTDspFA               (m)                   ElastoDyn
      18  TTDspSS               (m)                   ElastoDyn
      19  TTDspTwst             (deg)                 ElastoDyn
      20  PtfmSurge             (m)                   ElastoDyn
      21  PtfmSway              (m)                   ElastoDyn
      22  PtfmHeave             (m)                   ElastoDyn
      23  PtfmRoll              (deg)                 ElastoDyn
      24  PtfmPitch             (deg)                 ElastoDyn
      25  PtfmYaw               (deg)                 ElastoDyn
      26  PtfmRVxi              (deg/s)               ElastoDyn
      27  PtfmRVyi              (deg/s)               ElastoDyn
      28  PtfmRVzi              (deg/s)               ElastoDyn
      29  PtfmRAxi              (deg/s^2)             ElastoDyn
      30  PtfmRAyi              (deg/s^2)             ElastoDyn
      31  PtfmRAzi              (deg/s^2)             ElastoDyn
      32  RootFxc1              (kN)                  ElastoDyn
      33  RootFyc1              (kN)                  ElastoDyn
      34  RootFzc1              (kN)                  ElastoDyn
      35  RootMxc1              (kN-m)                ElastoDyn
      36  RootMyc1              (kN-m)                ElastoDyn
      37  RootMzc1              (kN-m)                ElastoDyn
      38  LSSGagMya             (kN-m)                ElastoDyn
      39  LSSGagMza             (kN-m)                ElastoDyn
      40  YawBrFxp              (kN)                  ElastoDyn
      41  YawBrFyp              (kN)                  ElastoDyn
      42  YawBrFzp              (kN)                  ElastoDyn
      43  YawBrMxp              (kN-m)                ElastoDyn
      44  YawBrMyp              (kN-m)                ElastoDyn
      45  YawBrMzp              (kN-m)                ElastoDyn
      46  TwrBsFxt              (kN)                  ElastoDyn
      47  TwrBsFyt              (kN)                  ElastoDyn
      48  TwrBsFzt              (kN)                  ElastoDyn
      49  TwrBsMxt              (kN-m)                ElastoDyn
      50  TwrBsMyt              (kN-m)                ElastoDyn
      51  TwrBsMzt              (kN-m)                ElastoDyn
      52  RtArea                (m^2)                 AeroDyn
      53  B1N3Clrnc             (m)                   AeroDyn
      54  B2N3Clrnc             (m)                   AeroDyn
      55  B3N3Clrnc             (m)                   AeroDyn
      56  GenPwr                (kW)                  ServoDyn
      57  GenTq                 (kN-m)                ServoDyn
      58  Wave1Elev             (m)                   HydroDyn
      59  HydroFxi              (N)                   HydroDyn
      60  HydroFyi              (N)                   HydroDyn
      61  HydroFzi              (N)                   HydroDyn
      62  HydroMxi              (N-m)                 HydroDyn
      63  HydroMyi              (N-m)                 HydroDyn
      64  HydroMzi              (N-m)                 HydroDyn
      65  B1Surge               (m)                   HydroDyn
      66  B1Sway                (m)                   HydroDyn
      67  B1Heave               (m)                   HydroDyn
      68  B1Roll                (rad)                 HydroDyn
      69  B1Pitch               (rad)                 HydroDyn
      70  B1Yaw                 (rad)                 HydroDyn
      71  B1TVxi                (m/s)                 HydroDyn
      72  B1TVyi                (m/s)                 HydroDyn
      73  B1TVzi                (m/s)                 HydroDyn
      74  B1RVxi                (rad/s)               HydroDyn
      75  B1RVyi                (rad/s)               HydroDyn
      76  B1RVzi                (rad/s)               HydroDyn
      77  B1TAxi                (m/s^2)               HydroDyn
      78  B1TAyi                (m/s^2)               HydroDyn
      79  B1TAzi                (m/s^2)               HydroDyn
      80  B1RAxi                (rad/s^2)             HydroDyn
      81  B1RAyi                (rad/s^2)             HydroDyn
      82  B1RAzi                (rad/s^2)             HydroDyn
      83  B1WvsFxi              (N)                   HydroDyn
      84  B1WvsFyi              (N)                   HydroDyn
      85  B1WvsFzi              (N)                   HydroDyn
      86  B1WvsMxi              (N-m)                 HydroDyn
      87  B1WvsMyi              (N-m)                 HydroDyn
      88  B1WvsMzi              (N-m)                 HydroDyn
      89  B1HDSFxi              (N)                   HydroDyn
      90  B1HDSFyi              (N)                   HydroDyn
      91  B1HDSFzi              (N)                   HydroDyn
      92  B1HDSMxi              (N-m)                 HydroDyn
      93  B1HDSMyi              (N-m)                 HydroDyn
      94  B1HDSMzi              (N-m)                 HydroDyn
      95  B1RdtFxi              (N)                   HydroDyn
      96  B1RdtFyi              (N)                   HydroDyn
      97  B1RdtFzi              (N)                   HydroDyn
      98  B1RdtMxi              (N-m)                 HydroDyn
      99  B1RdtMyi              (N-m)                 HydroDyn
     100  B1RdtMzi              (N-m)                 HydroDyn
     101  FAIRTEN1              (N)                   MoorDyn
     102  FAIRTEN2              (N)                   MoorDyn
     103  FAIRTEN3              (N)                   MoorDyn
     104  ANCHTEN1              (N)                   MoorDyn
     105  ANCHTEN2              (N)                   MoorDyn
     106  ANCHTEN3              (N)                   MoorDyn
