
Linearized model: Predictions were generated on 13-Mar-2024 at 12:26:36 using OpenFAST, compiled as a 64-bit application using single precision at commit v3.5.2
 linked with  NWTC Subroutine Library; ElastoDyn; InflowWind; AeroDyn; ServoDyn; HydroDyn; MAP++ (<1.20.10>, <Jan-19-2024>)

Description from the FAST input file: FAST Certification Test #25: NREL 5.0 MW Baseline Wind Turbine with OC4-DeepCwind semi configuration, for use in offshore analysis

Simulation information:
   Simulation time:                   376.4875 s
   Rotor Speed:                         0.9437 rad/s
   Azimuth:                             2.9755 rad
   Wind Speed:                         18.0000 m/s
   Number of continuous states:       108
   Number of discrete states:           0
   Number of constraint states:         0
   Number of inputs:                   67
   Number of outputs:                 105
   Jacobians included in this file?    No

Order of continuous states:
   Row/Column Operating Point                                    Rotating Frame? Derivative Order Description
   ---------- ---------------                                    --------------- ---------------- -----------
          1     4.2003450E+00                                           F               2         ED Platform horizontal surge translation DOF (internal DOF index = DOF_Sg), m
          2     2.7057823E-02                                           F               2         ED Platform pitch tilt rotation DOF (internal DOF index = DOF_P), rad
          3     1.6990371E-01                                           F               2         ED 1st tower fore-aft bending mode DOF (internal DOF index = DOF_TFA1), m
          4     1.4046652E+00                                           F               2         ED Variable speed generator DOF (internal DOF index = DOF_GeAz), rad
          5     6.5844440E-01                                           T               2         ED 1st flapwise bending-mode DOF of blade 1 (internal DOF index = DOF_BF(1,1)), m
          6     1.1543962E+00                                           T               2         ED 1st flapwise bending-mode DOF of blade 2 (internal DOF index = DOF_BF(2,1)), m
          7     2.0934412E+00                                           T               2         ED 1st flapwise bending-mode DOF of blade 3 (internal DOF index = DOF_BF(3,1)), m
          8     4.7086124E-04                                           F               2         ED First time derivative of Platform horizontal surge translation DOF (internal DOF index = DOF_Sg), m/s
          9     2.5420955E-05                                           F               2         ED First time derivative of Platform pitch tilt rotation DOF (internal DOF index = DOF_P), rad/s
         10    -5.3868205E-03                                           F               2         ED First time derivative of 1st tower fore-aft bending mode DOF (internal DOF index = DOF_TFA1), m/s
         11     9.4374514E-01                                           F               2         ED First time derivative of Variable speed generator DOF (internal DOF index = DOF_GeAz), rad/s
         12    -9.6969020E-01                                           T               2         ED First time derivative of 1st flapwise bending-mode DOF of blade 1 (internal DOF index = DOF_BF(1,1)), m/s
         13     6.7490423E-01                                           T               2         ED First time derivative of 1st flapwise bending-mode DOF of blade 2 (internal DOF index = DOF_BF(2,1)), m/s
         14    -9.2077799E-02                                           T               2         ED First time derivative of 1st flapwise bending-mode DOF of blade 3 (internal DOF index = DOF_BF(3,1)), m/s
         15     0.0000000E+00                                           F               1         HD ExctnPtfmSg1
         16     0.0000000E+00                                           F               1         HD ExctnPtfmSg2
         17     0.0000000E+00                                           F               1         HD ExctnPtfmSg3
         18     0.0000000E+00                                           F               1         HD ExctnPtfmSg4
         19     0.0000000E+00                                           F               1         HD ExctnPtfmSg5
         20     0.0000000E+00                                           F               1         HD ExctnPtfmSg6
         21     0.0000000E+00                                           F               1         HD ExctnPtfmSg7
         22     0.0000000E+00                                           F               1         HD ExctnPtfmSg8
         23     0.0000000E+00                                           F               1         HD ExctnPtfmSw1
         24     0.0000000E+00                                           F               1         HD ExctnPtfmSw2
         25     0.0000000E+00                                           F               1         HD ExctnPtfmHv1
         26     0.0000000E+00                                           F               1         HD ExctnPtfmHv2
         27     0.0000000E+00                                           F               1         HD ExctnPtfmHv3
         28     0.0000000E+00                                           F               1         HD ExctnPtfmHv4
         29     0.0000000E+00                                           F               1         HD ExctnPtfmHv5
         30     0.0000000E+00                                           F               1         HD ExctnPtfmHv6
         31     0.0000000E+00                                           F               1         HD ExctnPtfmHv7
         32     0.0000000E+00                                           F               1         HD ExctnPtfmHv8
         33     0.0000000E+00                                           F               1         HD ExctnPtfmR1
         34     0.0000000E+00                                           F               1         HD ExctnPtfmR2
         35     0.0000000E+00                                           F               1         HD ExctnPtfmR3
         36     0.0000000E+00                                           F               1         HD ExctnPtfmR4
         37     0.0000000E+00                                           F               1         HD ExctnPtfmR5
         38     0.0000000E+00                                           F               1         HD ExctnPtfmR6
         39     0.0000000E+00                                           F               1         HD ExctnPtfmR7
         40     0.0000000E+00                                           F               1         HD ExctnPtfmR8
         41     0.0000000E+00                                           F               1         HD ExctnPtfmP1
         42     0.0000000E+00                                           F               1         HD ExctnPtfmP2
         43     0.0000000E+00                                           F               1         HD ExctnPtfmP3
         44     0.0000000E+00                                           F               1         HD ExctnPtfmP4
         45     0.0000000E+00                                           F               1         HD ExctnPtfmP5
         46     0.0000000E+00                                           F               1         HD ExctnPtfmP6
         47     0.0000000E+00                                           F               1         HD ExctnPtfmP7
         48     0.0000000E+00                                           F               1         HD ExctnPtfmP8
         49     0.0000000E+00                                           F               1         HD ExctnPtfmY1
         50     0.0000000E+00                                           F               1         HD ExctnPtfmY2
         51     7.5439195E-04                                           F               1         HD RdtnPtfmSg1
         52     5.6912428E-05                                           F               1         HD RdtnPtfmSg2
         53    -9.4547111E-05                                           F               1         HD RdtnPtfmSg3
         54    -7.2820058E-06                                           F               1         HD RdtnPtfmSg4
         55     1.2243049E-05                                           F               1         HD RdtnPtfmSg5
         56    -2.4433994E-05                                           F               1         HD RdtnPtfmSg6
         57    -1.9825675E-05                                           F               1         HD RdtnPtfmSg7
         58     5.7206553E-04                                           F               1         HD RdtnPtfmSg8
         59    -1.0082777E-05                                           F               1         HD RdtnPtfmSg9
         60    -7.0192109E-05                                           F               1         HD RdtnPtfmSg10
         61    -1.0715565E-04                                           F               1         HD RdtnPtfmSg11
         62     5.0814000E-05                                           F               1         HD RdtnPtfmSg12
         63     0.0000000E+00                                           F               1         HD RdtnPtfmSw1
         64     0.0000000E+00                                           F               1         HD RdtnPtfmSw2
         65     0.0000000E+00                                           F               1         HD RdtnPtfmSw3
         66     0.0000000E+00                                           F               1         HD RdtnPtfmSw4
         67     0.0000000E+00                                           F               1         HD RdtnPtfmSw5
         68     0.0000000E+00                                           F               1         HD RdtnPtfmSw6
         69     0.0000000E+00                                           F               1         HD RdtnPtfmSw7
         70     0.0000000E+00                                           F               1         HD RdtnPtfmSw8
         71     0.0000000E+00                                           F               1         HD RdtnPtfmSw9
         72     0.0000000E+00                                           F               1         HD RdtnPtfmSw10
         73     0.0000000E+00                                           F               1         HD RdtnPtfmSw11
         74     0.0000000E+00                                           F               1         HD RdtnPtfmSw12
         75     0.0000000E+00                                           F               1         HD RdtnPtfmHv1
         76     0.0000000E+00                                           F               1         HD RdtnPtfmHv2
         77     0.0000000E+00                                           F               1         HD RdtnPtfmHv3
         78     0.0000000E+00                                           F               1         HD RdtnPtfmHv4
         79     0.0000000E+00                                           F               1         HD RdtnPtfmHv5
         80     0.0000000E+00                                           F               1         HD RdtnPtfmHv6
         81     0.0000000E+00                                           F               1         HD RdtnPtfmHv7
         82     0.0000000E+00                                           F               1         HD RdtnPtfmHv8
         83     0.0000000E+00                                           F               1         HD RdtnPtfmHv9
         84     0.0000000E+00                                           F               1         HD RdtnPtfmR1
         85     0.0000000E+00                                           F               1         HD RdtnPtfmR2
         86     0.0000000E+00                                           F               1         HD RdtnPtfmR3
         87     0.0000000E+00                                           F               1         HD RdtnPtfmR4
         88     0.0000000E+00                                           F               1         HD RdtnPtfmR5
         89     0.0000000E+00                                           F               1         HD RdtnPtfmR6
         90     0.0000000E+00                                           F               1         HD RdtnPtfmR7
         91     0.0000000E+00                                           F               1         HD RdtnPtfmR8
         92     0.0000000E+00                                           F               1         HD RdtnPtfmR9
         93     0.0000000E+00                                           F               1         HD RdtnPtfmR10
         94     2.8346420E-05                                           F               1         HD RdtnPtfmP1
         95    -1.0159473E-06                                           F               1         HD RdtnPtfmP2
         96    -3.2564385E-06                                           F               1         HD RdtnPtfmP3
         97     8.7225015E-07                                           F               1         HD RdtnPtfmP4
         98    -5.2096002E-06                                           F               1         HD RdtnPtfmP5
         99     2.7760720E-05                                           F               1         HD RdtnPtfmP6
        100    -3.8081788E-07                                           F               1         HD RdtnPtfmP7
        101    -3.2460068E-06                                           F               1         HD RdtnPtfmP8
        102     8.7426258E-07                                           F               1         HD RdtnPtfmP9
        103    -4.0215282E-06                                           F               1         HD RdtnPtfmP10
        104     0.0000000E+00                                           F               1         HD RdtnPtfmY1
        105     0.0000000E+00                                           F               1         HD RdtnPtfmY2
        106     0.0000000E+00                                           F               1         HD RdtnPtfmY3
        107     0.0000000E+00                                           F               1         HD RdtnPtfmY4
        108     0.0000000E+00                                           F               1         HD RdtnPtfmY5

Order of continuous state derivatives:
   Row/Column Operating Point                                    Rotating Frame? Derivative Order Description
   ---------- ---------------                                    --------------- ---------------- -----------
          1     4.7086124E-04                                           F               2         First time derivative of ED Platform horizontal surge translation DOF (internal DOF index = DOF_Sg), m/s
          2     2.5420955E-05                                           F               2         First time derivative of ED Platform pitch tilt rotation DOF (internal DOF index = DOF_P), rad/s
          3    -5.3868205E-03                                           F               2         First time derivative of ED 1st tower fore-aft bending mode DOF (internal DOF index = DOF_TFA1), m/s
          4     9.4374514E-01                                           F               2         First time derivative of ED Variable speed generator DOF (internal DOF index = DOF_GeAz), rad/s
          5    -9.6969020E-01                                           T               2         First time derivative of ED 1st flapwise bending-mode DOF of blade 1 (internal DOF index = DOF_BF(1,1)), m/s
          6     6.7490423E-01                                           T               2         First time derivative of ED 1st flapwise bending-mode DOF of blade 2 (internal DOF index = DOF_BF(2,1)), m/s
          7    -9.2077799E-02                                           T               2         First time derivative of ED 1st flapwise bending-mode DOF of blade 3 (internal DOF index = DOF_BF(3,1)), m/s
          8    -3.2979269E-03                                           F               2         First time derivative of ED First time derivative of Platform horizontal surge translation DOF (internal DOF index = DOF_Sg), m/s/s
          9    -1.6079203E-04                                           F               2         First time derivative of ED First time derivative of Platform pitch tilt rotation DOF (internal DOF index = DOF_P), rad/s/s
         10     5.4586794E-02                                           F               2         First time derivative of ED First time derivative of 1st tower fore-aft bending mode DOF (internal DOF index = DOF_TFA1), m/s/s
         11    -2.2492621E-03                                           F               2         First time derivative of ED First time derivative of Variable speed generator DOF (internal DOF index = DOF_GeAz), rad/s/s
         12    -1.4815943E+00                                           T               2         First time derivative of ED First time derivative of 1st flapwise bending-mode DOF of blade 1 (internal DOF index = DOF_BF(1,1)), m/s/s
         13     3.2280706E-02                                           T               2         First time derivative of ED First time derivative of 1st flapwise bending-mode DOF of blade 2 (internal DOF index = DOF_BF(2,1)), m/s/s
         14    -5.2828425E-01                                           T               2         First time derivative of ED First time derivative of 1st flapwise bending-mode DOF of blade 3 (internal DOF index = DOF_BF(3,1)), m/s/s
         15     0.0000000E+00                                           F               1         First time derivative of HD ExctnPtfmSg1/s
         16     0.0000000E+00                                           F               1         First time derivative of HD ExctnPtfmSg2/s
         17     0.0000000E+00                                           F               1         First time derivative of HD ExctnPtfmSg3/s
         18     0.0000000E+00                                           F               1         First time derivative of HD ExctnPtfmSg4/s
         19     0.0000000E+00                                           F               1         First time derivative of HD ExctnPtfmSg5/s
         20     0.0000000E+00                                           F               1         First time derivative of HD ExctnPtfmSg6/s
         21     0.0000000E+00                                           F               1         First time derivative of HD ExctnPtfmSg7/s
         22     0.0000000E+00                                           F               1         First time derivative of HD ExctnPtfmSg8/s
         23     0.0000000E+00                                           F               1         First time derivative of HD ExctnPtfmSw1/s
         24     0.0000000E+00                                           F               1         First time derivative of HD ExctnPtfmSw2/s
         25     0.0000000E+00                                           F               1         First time derivative of HD ExctnPtfmHv1/s
         26     0.0000000E+00                                           F               1         First time derivative of HD ExctnPtfmHv2/s
         27     0.0000000E+00                                           F               1         First time derivative of HD ExctnPtfmHv3/s
         28     0.0000000E+00                                           F               1         First time derivative of HD ExctnPtfmHv4/s
         29     0.0000000E+00                                           F               1         First time derivative of HD ExctnPtfmHv5/s
         30     0.0000000E+00                                           F               1         First time derivative of HD ExctnPtfmHv6/s
         31     0.0000000E+00                                           F               1         First time derivative of HD ExctnPtfmHv7/s
         32     0.0000000E+00                                           F               1         First time derivative of HD ExctnPtfmHv8/s
         33     0.0000000E+00                                           F               1         First time derivative of HD ExctnPtfmR1/s
         34     0.0000000E+00                                           F               1         First time derivative of HD ExctnPtfmR2/s
         35     0.0000000E+00                                           F               1         First time derivative of HD ExctnPtfmR3/s
         36     0.0000000E+00                                           F               1         First time derivative of HD ExctnPtfmR4/s
         37     0.0000000E+00                                           F               1         First time derivative of HD ExctnPtfmR5/s
         38     0.0000000E+00                                           F               1         First time derivative of HD ExctnPtfmR6/s
         39     0.0000000E+00                                           F               1         First time derivative of HD ExctnPtfmR7/s
         40     0.0000000E+00                                           F               1         First time derivative of HD ExctnPtfmR8/s
         41     0.0000000E+00                                           F               1         First time derivative of HD ExctnPtfmP1/s
         42     0.0000000E+00                                           F               1         First time derivative of HD ExctnPtfmP2/s
         43     0.0000000E+00                                           F               1         First time derivative of HD ExctnPtfmP3/s
         44     0.0000000E+00                                           F               1         First time derivative of HD ExctnPtfmP4/s
         45     0.0000000E+00                                           F               1         First time derivative of HD ExctnPtfmP5/s
         46     0.0000000E+00                                           F               1         First time derivative of HD ExctnPtfmP6/s
         47     0.0000000E+00                                           F               1         First time derivative of HD ExctnPtfmP7/s
         48     0.0000000E+00                                           F               1         First time derivative of HD ExctnPtfmP8/s
         49     0.0000000E+00                                           F               1         First time derivative of HD ExctnPtfmY1/s
         50     0.0000000E+00                                           F               1         First time derivative of HD ExctnPtfmY2/s
         51    -4.1482798E-04                                           F               1         First time derivative of HD RdtnPtfmSg1/s
         52     7.5439195E-04                                           F               1         First time derivative of HD RdtnPtfmSg2/s
         53     5.6912428E-05                                           F               1         First time derivative of HD RdtnPtfmSg3/s
         54    -9.4547111E-05                                           F               1         First time derivative of HD RdtnPtfmSg4/s
         55    -7.2820058E-06                                           F               1         First time derivative of HD RdtnPtfmSg5/s
         56     1.2243049E-05                                           F               1         First time derivative of HD RdtnPtfmSg6/s
         57    -2.4433994E-05                                           F               1         First time derivative of HD RdtnPtfmSg7/s
         58     1.1628226E-04                                           F               1         First time derivative of HD RdtnPtfmSg8/s
         59     5.7206553E-04                                           F               1         First time derivative of HD RdtnPtfmSg9/s
         60    -1.0082777E-05                                           F               1         First time derivative of HD RdtnPtfmSg10/s
         61    -7.0192109E-05                                           F               1         First time derivative of HD RdtnPtfmSg11/s
         62    -1.0715565E-04                                           F               1         First time derivative of HD RdtnPtfmSg12/s
         63     0.0000000E+00                                           F               1         First time derivative of HD RdtnPtfmSw1/s
         64     0.0000000E+00                                           F               1         First time derivative of HD RdtnPtfmSw2/s
         65     0.0000000E+00                                           F               1         First time derivative of HD RdtnPtfmSw3/s
         66     0.0000000E+00                                           F               1         First time derivative of HD RdtnPtfmSw4/s
         67     0.0000000E+00                                           F               1         First time derivative of HD RdtnPtfmSw5/s
         68     0.0000000E+00                                           F               1         First time derivative of HD RdtnPtfmSw6/s
         69     0.0000000E+00                                           F               1         First time derivative of HD RdtnPtfmSw7/s
         70     0.0000000E+00                                           F               1         First time derivative of HD RdtnPtfmSw8/s
         71     0.0000000E+00                                           F               1         First time derivative of HD RdtnPtfmSw9/s
         72     0.0000000E+00                                           F               1         First time derivative of HD RdtnPtfmSw10/s
         73     0.0000000E+00                                           F               1         First time derivative of HD RdtnPtfmSw11/s
         74     0.0000000E+00                                           F               1         First time derivative of HD RdtnPtfmSw12/s
         75     0.0000000E+00                                           F               1         First time derivative of HD RdtnPtfmHv1/s
         76     0.0000000E+00                                           F               1         First time derivative of HD RdtnPtfmHv2/s
         77     0.0000000E+00                                           F               1         First time derivative of HD RdtnPtfmHv3/s
         78     0.0000000E+00                                           F               1         First time derivative of HD RdtnPtfmHv4/s
         79     0.0000000E+00                                           F               1         First time derivative of HD RdtnPtfmHv5/s
         80     0.0000000E+00                                           F               1         First time derivative of HD RdtnPtfmHv6/s
         81     0.0000000E+00                                           F               1         First time derivative of HD RdtnPtfmHv7/s
         82     0.0000000E+00                                           F               1         First time derivative of HD RdtnPtfmHv8/s
         83     0.0000000E+00                                           F               1         First time derivative of HD RdtnPtfmHv9/s
         84     0.0000000E+00                                           F               1         First time derivative of HD RdtnPtfmR1/s
         85     0.0000000E+00                                           F               1         First time derivative of HD RdtnPtfmR2/s
         86     0.0000000E+00                                           F               1         First time derivative of HD RdtnPtfmR3/s
         87     0.0000000E+00                                           F               1         First time derivative of HD RdtnPtfmR4/s
         88     0.0000000E+00                                           F               1         First time derivative of HD RdtnPtfmR5/s
         89     0.0000000E+00                                           F               1         First time derivative of HD RdtnPtfmR6/s
         90     0.0000000E+00                                           F               1         First time derivative of HD RdtnPtfmR7/s
         91     0.0000000E+00                                           F               1         First time derivative of HD RdtnPtfmR8/s
         92     0.0000000E+00                                           F               1         First time derivative of HD RdtnPtfmR9/s
         93     0.0000000E+00                                           F               1         First time derivative of HD RdtnPtfmR10/s
         94     9.2540795E-06                                           F               1         First time derivative of HD RdtnPtfmP1/s
         95     2.8346420E-05                                           F               1         First time derivative of HD RdtnPtfmP2/s
         96    -1.0159473E-06                                           F               1         First time derivative of HD RdtnPtfmP3/s
         97    -3.2564385E-06                                           F               1         First time derivative of HD RdtnPtfmP4/s
         98     8.7225015E-07                                           F               1         First time derivative of HD RdtnPtfmP5/s
         99     4.1607650E-06                                           F               1         First time derivative of HD RdtnPtfmP6/s
        100     2.7760720E-05                                           F               1         First time derivative of HD RdtnPtfmP7/s
        101    -3.8081788E-07                                           F               1         First time derivative of HD RdtnPtfmP8/s