
Predictions were generated on 08-Feb-2024 at 16:30:24 using OpenFAST, compiled as a 64-bit application using single precision at commit Unversioned from 8e9c079e31d2cc1ac0f918288f98bdc745f85648
 linked with  NWTC Subroutine Library; ElastoDyn; InflowWind; AeroDyn; ServoDyn

Description from the FAST input file: FOCAL As Built Full Scale Turbine (only)

Time	Wind1VelX	Azimuth	BldPitch1	GenSpeed	RotSpeed	IPDefl1	OoPDefl1	RootMxb1	RootMyb1	TipDxb1	TipDyb1	NcIMUTAxs	NcIMUTAys	NcIMUTAzs	RotTorq	RotThrust	TwrBsMxt	TwrBsMyt	TwrBsMzt	YawBrFxp	YawBrFyp	YawBrFzp	YawBrMxp	YawBrMyp	YawBrMzp	TwrBsFzt	NacYaw	PtfmSurge	PtfmSway	PtfmHeave	PtfmRoll	PtfmPitch	PtfmYaw	YawBrTDxt	YawBrTDyt	RtAeroFxh	RtAeroFyh	RtAeroFzh	RtAeroMxh	RtAeroMyh	RtAeroMzh	RtVAvgxh	RtAeroCp	RtTSR	GenPwr	GenTq
(s)	(m/s)	(deg)	(deg)	(rpm)	(rpm)	(m)	(m)	(kN-m)	(kN-m)	(m)	(m)	(m/s^2)	(m/s^2)	(m/s^2)	(kN-m)	(kN)	(kN-m)	(kN-m)	(kN-m)	(kN)	(kN)	(kN)	(kN-m)	(kN-m)	(kN-m)	(kN)	(deg)	(m)	(m)	(m)	(deg)	(deg)	(deg)	(m)	(m)	(N)	(N)	(N)	(N-m)	(N-m)	(N-m)	(m/s)	(-)	(-)	(kW)	(kN-m)
    0.0000	 1.000000E+01	 0.000000E+00	 1.721200E+00	 5.262900E+00	 5.262900E+00	 0.000000E+00	 0.000000E+00	-6.120963E+01	 3.126274E+03	 0.000000E+00	 0.000000E+00	 0.000000E+00	 0.000000E+00	 0.000000E+00	 2.174119E-06	 7.021708E+02	-4.632503E+02	-5.126666E+04	-4.814606E+01	 1.703276E-01	 3.400751E+00	-1.142269E+04	-2.941994E+01	-5.128838E+04	-4.814606E+01	-2.221346E+04	 0.000000E+00	 0.000000E+00	 0.000000E+00	 0.000000E+00	 0.000000E+00	 0.000000E+00	 0.000000E+00	 0.000000E+00	 0.000000E+00	 1.246272E+06	 9.907285E+02	-3.602022E+03	 1.280258E+07	-3.238410E+05	 1.691213E+06	 9.948916E+00	 2.537798E-01	 6.710167E+00	 7.239846E+03	 1.360578E+04
    0.0250	 1.000000E+01	 7.894059E-01	 1.719998E+00	 5.262574E+00	 5.262574E+00	 0.000000E+00	 0.000000E+00	 3.516553E+03	 3.299977E+04	 0.000000E+00	 0.000000E+00	 0.000000E+00	 0.000000E+00	 0.000000E+00	 1.360578E+04	 1.948443E+03	 1.311369E+04	 1.167605E+05	 1.966969E+02	 1.239245E+03	 4.362048E+00	-1.155648E+04	 1.367015E+04	-4.279830E+04	 1.966969E+02	-2.234725E+04	 0.000000E+00	 0.000000E+00	 0.000000E+00	 0.000000E+00	 0.000000E+00	 0.000000E+00	 0.000000E+00	 0.000000E+00	 0.000000E+00	 1.246156E+06	 9.086894E+02	-3.615414E+03	 1.279983E+07	-2.955444E+05	 1.693115E+06	 9.948971E+00	 2.537055E-01	 6.709715E+00	 7.179539E+03	 1.349328E+04
    0.0500	 1.000000E+01	 1.578757E+00	 1.719998E+00	 5.262325E+00	 5.262325E+00	 0.000000E+00	 0.000000E+00	 3.830858E+03	 3.305332E+04	 0.000000E+00	 0.000000E+00	 0.000000E+00	 0.000000E+00	 0.000000E+00	 1.326828E+04	 1.948095E+03	 1.279447E+04	 1.167766E+05	 2.365040E+02	 1.238903E+03	 4.243630E+00	-1.155641E+04	 1.333582E+04	-4.273866E+04	 2.365040E+02	-2.234718E+04	 0.000000E+00	 0.000000E+00	 0.000000E+00	 0.000000E+00	 0.000000E+00	 0.000000E+00	 0.000000E+00	 0.000000E+00	 0.000000E+00	 1.246067E+06	 8.330359E+02	-3.631323E+03	 1.279953E+07	-2.682390E+05	 1.695443E+06	 9.949019E+00	 2.536839E-01	 6.709366E+00	 7.119343E+03	 1.338078E+04
    0.0750	 1.000000E+01	 2.368109E+00	 1.719998E+00	 5.262100E+00	 5.262100E+00	 0.000000E+00	 0.000000E+00	 4.239128E+03	 3.306552E+04	 0.000000E+00	 0.000000E+00	 0.000000E+00	 0.000000E+00	 0.000000E+00	 1.326828E+04	 1.948177E+03	 1.279480E+04	 1.167622E+05	 2.335884E+02	 1.238988E+03	 4.238892E+00	-1.155638E+04	 1.333555E+04	-4.276381E+04	 2.335884E+02	-2.234715E+04	 0.000000E+00	 0.000000E+00	 0.000000E+00	 0.000000E+00	 0.000000E+00	 0.000000E+00	 0.000000E+00	 0.000000E+00	 0.000000E+00	 1.245987E+06	 7.614235E+02	-3.647976E+03	 1.279931E+07	-2.415844E+05	 1.697790E+06	 9.948999E+00	 2.536702E-01	 6.709091E+00	 7.059185E+03	 1.326828E+04
    0.1000	 1.000000E+01	 3.157405E+00	 1.719998E+00	 5.261915E+00	 5.261915E+00	 0.000000E+00	 0.000000E+00	 4.615708E+03	 3.309093E+04	 0.000000E+00	 0.000000E+00	 0.000000E+00	 0.000000E+00	 0.000000E+00	 1.315578E+04	 1.948085E+03	 1.268865E+04	 1.167540E+05	 2.449134E+02	 1.238901E+03	 4.196000E+00	-1.155633E+04	 1.322393E+04	-4.276089E+04	 2.449134E+02	-2.234711E+04	 0.000000E+00	 0.000000E+00	 0.000000E+00	 0.000000E+00	 0.000000E+00	 0.000000E+00	 0.000000E+00	 0.000000E+00	 0.000000E+00	 1.245918E+06	 6.925328E+02	-3.664370E+03	 1.279914E+07	-2.153389E+05	 1.699986E+06	 9.948947E+00	 2.536619E-01	 6.708891E+00	 6.999084E+03	 1.315578E+04
    0.1250	 1.000000E+01	 3.946674E+00	 1.719998E+00	 5.261770E+00	 5.261770E+00	 0.000000E+00	 0.000000E+00	 4.991831E+03	 3.311707E+04	 0.000000E+00	 0.000000E+00	 0.000000E+00	 0.000000E+00	 0.000000E+00	 1.304328E+04	 1.948031E+03	 1.258225E+04	 1.167505E+05	 2.564475E+02	 1.238851E+03	 4.155119E+00	-1.155629E+04	 1.311231E+04	-4.275803E+04	 2.564475E+02	-2.234706E+04	 0.000000E+00	 0.000000E+00	 0.000000E+00	 0.000000E+00	 0.000000E+00	 0.000000E+00	 0.000000E+00	 0.000000E+00	 0.000000E+00	 1.245867E+06	 6.263319E+02	-3.681312E+03	 1.279917E+07	-1.894787E+05	 1.702102E+06	 9.948947E+00	 2.536555E-01	 6.708706E+00	 6.939042E+03	 1.304328E+04
    0.1500	 1.000000E+01	 4.735944E+00	 1.719998E+00	 5.261666E+00	 5.261666E+00	 0.000000E+00	 0.000000E+00	 5.367407E+03	 3.314348E+04	 0.000000E+00	 0.000000E+00	 0.000000E+00	 0.000000E+00	 0.000000E+00	 1.293078E+04	 1.948006E+03	 1.247540E+04	 1.167502E+05	 2.685417E+02	 1.238829E+03	 4.117980E+00	-1.155626E+04	 1.300073E+04	-4.275557E+04	 2.685417E+02	-2.234703E+04	 0.000000E+00	 0.000000E+00	 0.000000E+00	 0.000000E+00	 0.000000E+00	 0.000000E+00	 0.000000E+00	 0.000000E+00	 0.000000E+00	 1.245837E+06	 5.628037E+02	-3.699282E+03	 1.279936E+07	-1.639318E+05	 1.704150E+06	 9.948951E+00	 2.536539E-01	 6.708570E+00	 6.879054E+03	 1.293078E+04
    0.1750	 1.000000E+01	 5.525186E+00	 1.719998E+00	 5.261602E+00	 5.261602E+00	 0.000000E+00	 0.000000E+00	 5.742400E+03	 3.316993E+04	 0.000000E+00	 0.000000E+00	 0.000000E+00	 0.000000E+00	 0.000000E+00	 1.281828E+04	 1.947998E+03	 1.236820E+04	 1.167518E+05	 2.807544E+02	 1.238824E+03	 4.083580E+00	-1.155623E+04	 1.288914E+04	-4.275336E+04	 2.807544E+02	-2.234700E+04	 0.000000E+00	 0.000000E+00	 0.000000E+00	 0.000000E+00	 0.000000E+00	 0.000000E+00	 0.000000E+00	 0.000000E+00	 0.000000E+00	 1.245824E+06	 5.012675E+02	-3.717574E+03	 1.279967E+07	-1.386304E+05	 1.706003E+06	 9.948975E+00	 2.536553E-01	 6.708473E+00	 6.819123E+03	 1.281828E+04
    0.2000	 1.000000E+01	 6.314427E+00	 1.719998E+00	 5.261579E+00	 5.261579E+00	 0.000000E+00	 0.000000E+00	 6.116792E+03	 3.319665E+04	 0.000000E+00	 0.000000E+00	 0.000000E+00	 0.000000E+00	 0.000000E+00	 1.270578E+04	 1.948001E+03	 1.226084E+04	 1.167547E+05	 2.929948E+02	 1.238830E+03	 4.050417E+00	-1.155620E+04	 1.277754E+04	-4.275120E+04	 2.929948E+02	-2.234697E+04	 0.000000E+00	 0.000000E+00	 0.000000E+00	 0.000000E+00	 0.000000E+00	 0.000000E+00	 0.000000E+00	 0.000000E+00	 0.000000E+00	 1.245827E+06	 4.409409E+02	-3.735271E+03	 1.280008E+07	-1.134848E+05	 1.707601E+06	 9.949022E+00	 2.536584E-01	 6.708411E+00	 6.759245E+03	 1.270578E+04
    0.2250	 1.000000E+01	 7.103642E+00	 1.719998E+00	 5.261596E+00	 5.261596E+00	 0.000000E+00	 0.000000E+00	 6.490502E+03	 3.322368E+04	 0.000000E+00	 0.000000E+00	 0.000000E+00	 0.000000E+00	 0.000000E+00	 1.259328E+04	 1.948016E+03	 1.215358E+04	 1.167592E+05	 3.052427E+02	 1.238849E+03	 4.016430E+00	-1.155617E+04	 1.266596E+04	-4.274903E+04	 3.052427E+02	-2.234694E+04	 0.000000E+00	 0.000000E+00	 0.000000E+00	 0.000000E+00	 0.000000E+00	 0.000000E+00	 0.000000E+00	 0.000000E+00	 0.000000E+00	 1.245843E+06	 3.812612E+02	-3.751469E+03	 1.280054E+07	-8.841226E+04	 1.708814E+06	 9.948999E+00	 2.536702E-01	 6.708448E+00	 6.699419E+03	 1.259328E+04
    0.2500	 1.000000E+01	 7.892884E+00	 1.719998E+00	 5.261654E+00	 5.261654E+00	 0.000000E+00	 0.000000E+00	 6.863488E+03	 3.325098E+04	 0.000000E+00	 0.000000E+00	 0.000000E+00	 0.000000E+00	 0.000000E+00	 1.248078E+04	 1.948042E+03	 1.204631E+04	 1.167652E+05	 3.173588E+02	 1.238878E+03	 3.982492E+00	-1.155614E+04	 1.255435E+04	-4.274677E+04	 3.173588E+02	-2.234691E+04	 0.000000E+00	 0.000000E+00	 0.000000E+00	 0.000000E+00	 0.000000E+00	 0.000000E+00	 0.000000E+00	 0.000000E+00	 0.000000E+00	 1.245871E+06	 3.220764E+02	-3.766301E+03	 1.280106E+07	-6.341004E+04	 1.709681E+06	 9.948962E+00	 2.536862E-01	 6.708547E+00	 6.639644E+03	 1.248078E+04
    0.2750	 1.000000E+01	 8.682154E+00	 1.719998E+00	 5.261752E+00	 5.261752E+00	 0.000000E+00	 0.000000E+00	 7.235654E+03	 3.327853E+04	 0.000000E+00	 0.000000E+00	 0.000000E+00	 0.000000E+00	 0.000000E+00	 1.236828E+04	 1.948084E+03	 1.193886E+04	 1.167731E+05	 3.295923E+02	 1.238923E+03	 3.949978E+00	-1.155611E+04	 1.244275E+04	-4.274459E+04	 3.295923E+02	-2.234689E+04	 0.000000E+00	 0.000000E+00	 0.000000E+00	 0.000000E+00	 0.000000E+00	 0.000000E+00	 0.000000E+00	 0.000000E+00	 0.000000E+00	 1.245916E+06	 2.637894E+02	-3.780453E+03	 1.280167E+07	-3.851001E+04	 1.710256E+06	 9.948922E+00	 2.537061E-01	 6.708701E+00	 6.579918E+03	 1.236828E+04
    0.3000	 1.000000E+01	 9.471423E+00	 1.719998E+00	 5.261891E+00	 5.261891E+00	 0.000000E+00	 0.000000E+00	 7.606915E+03	 3.330641E+04	 0.000000E+00	 0.000000E+00	 0.000000E+00	 0.000000E+00	 0.000000E+00	 1.225578E+04	 1.948147E+03	 1.183126E+04	 1.167836E+05	 3.419738E+02	 1.238988E+03	 3.918639E+00	-1.155609E+04	 1.233116E+04	-4.274244E+04	 3.419738E+02	-2.234686E+04	 0.000000E+00	 0.000000E+00	 0.000000E+00	 0.000000E+00	 0.000000E+00	 0.000000E+00	 0.000000E+00	 0.000000E+00	 0.000000E+00	 1.245978E+06	 2.067021E+02	-3.794806E+03	 1.280238E+07	-1.373384E+04	 1.710577E+06	 9.948903E+00	 2.537283E-01	 6.708890E+00	 6.520241E+03	 1.225578E+04
    0.3250	 1.000000E+01	 1.026072E+01	 1.719998E+00	 5.262072E+00	 5.262072E+00	 0.000000E+00	 0.000000E+00	 7.977208E+03	 3.333456E+04	 0.000000E+00	 0.000000E+00	 0.000000E+00	 0.000000E+00	 0.000000E+00	 1.214328E+04	 1.948231E+03	 1.172338E+04	 1.167968E+05	 3.544175E+02	 1.239075E+03	 3.889473E+00	-1.155607E+04	 1.221956E+04	-4.274036E+04	 3.544175E+02	-2.234684E+04	 0.000000E+00	 0.000000E+00	 0.000000E+00	 0.000000E+00	 0.000000E+00	 0.000000E+00	 0.000000E+00	 0.000000E+00	 0.000000E+00	 1.246060E+06	 1.508704E+02	-3.809300E+03	 1.280318E+07	 1.093050E+04	 1.710612E+06	 9.948921E+00	 2.537514E-01	 6.709107E+00	 6.460610E+03	 1.214328E+04
    0.3500	 1.000000E+01	 1.105004E+01	 1.719998E+00	 5.262292E+00	 5.262292E+00	 0.000000E+00	 0.000000E+00	 8.346480E+03	 3.336300E+04	 0.000000E+00	 0.000000E+00	 0.000000E+00	 0.000000E+00	 0.000000E+00	 1.203078E+04	 1.948332E+03	 1.161549E+04	 1.168121E+05	 3.668148E+02	 1.239178E+03	 3.860353E+00	-1.155605E+04	 1.210795E+04	-4.273818E+04	 3.668148E+02	-2.234683E+04	 0.000000E+00	 0.000000E+00	 0.000000E+00	 0.000000E+00	 0.000000E+00	 0.000000E+00	 0.000000E+00	 0.000000E+00	 0.000000E+00	 1.246160E+06	 9.603822E+01	-3.823719E+03	 1.280408E+07	 3.548676E+04	 1.710397E+06	 9.948956E+00	 2.537772E-01	 6.709365E+00	 6.401024E+03	 1.203078E+04
    0.3750	 1.000000E+01	 1.183942E+01	 1.719998E+00	 5.262554E+00	 5.262554E+00	 0.000000E+00	 0.000000E+00	 8.714646E+03	 3.339172E+04	 0.000000E+00	 0.000000E+00	 0.000000E+00	 0.000000E+00	 0.000000E+00	 1.191828E+04	 1.948448E+03	 1.150746E+04	 1.168292E+05	 3.793600E+02	 1.239296E+03	 3.832345E+00	-1.155604E+04	 1.199635E+04	-4.273610E+04	 3.793600E+02	-2.234681E+04	 0.000000E+00	 0.000000E+00	 0.000000E+00	 0.000000E+00	 0.000000E+00	 0.000000E+00	 0.000000E+00	 0.000000E+00	 0.000000E+00	 1.246274E+06	 4.172311E+01	-3.837179E+03	 1.280504E+07	 5.997529E+04	 1.709837E+06	 9.948984E+00	 2.538068E-01	 6.709680E+00	 6.341484E+03	 1.191828E+04
    0.4000	 1.000000E+01	 1.262883E+01	 1.719998E+00	 5.262856E+00	 5.262856E+00	 0.000000E+00	 0.000000E+00	 9.081668E+03	 3.342073E+04	 0.000000E+00	 0.000000E+00	 0.000000E+00	 0.000000E+00	 0.000000E+00	 1.180578E+04	 1.948575E+03	 1.139953E+04	 1.168481E+05	 3.917561E+02	 1.239426E+03	 3.803504E+00	-1.155603E+04	 1.188474E+04	-4.273386E+04	 3.917561E+02	-2.234680E+04	 0.000000E+00	 0.000000E+00	 0.000000E+00	 0.000000E+00	 0.000000E+00	 0.000000E+00	 0.000000E+00	 0.000000E+00	 0.000000E+00	 1.246402E+06	-1.256121E+01	-3.849116E+03	 1.280604E+07	 8.441731E+04	 1.708909E+06	 9.948989E+00	 2.538408E-01	 6.710062E+00	 6.281986E+03	 1.180578E+04
    0.4250	 1.000000E+01	 1.341826E+01	 1.719998E+00	 5.263199E+00	 5.263199E+00	 0.000000E+00	 0.000000E+00	 9.447464E+03	 3.345004E+04	 0.000000E+00	 0.000000E+00	 0.000000E+00	 0.000000E+00	 0.000000E+00	 1.169328E+04	 1.948714E+03	 1.129167E+04	 1.168684E+05	 4.041244E+02	 1.239567E+03	 3.774082E+00	-1.155601E+04	 1.177313E+04	-4.273150E+04	 4.041244E+02	-2.234678E+04	 0.000000E+00	 0.000000E+00	 0.000000E+00	 0.000000E+00	 0.000000E+00	 0.000000E+00	 0.000000E+00	 0.000000E+00	 0.000000E+00	 1.246541E+06	-6.714877E+01	-3.859018E+03	 1.280706E+07	 1.088544E+05	 1.707554E+06	 9.948960E+00	 2.538797E-01	 6.710519E+00	 6.222529E+03	 1.169328E+04
    0.4500	 1.000000E+01	 1.420778E+01	 1.719998E+00	 5.263583E+00	 5.263583E+00	 0.000000E+00	 0.000000E+00	 9.811971E+03	 3.347962E+04	 0.000000E+00	 0.000000E+00	 0.000000E+00	 0.000000E+00	 0.000000E+00	 1.158078E+04	 1.948863E+03	 1.118405E+04	 1.168902E+05	 4.164141E+02	 1.239719E+03	 3.742831E+00	-1.155600E+04	 1.166152E+04	-4.272901E+04	 4.164141E+02	-2.234677E+04	 0.000000E+00	 0.000000E+00	 0.000000E+00	 0.000000E+00	 0.000000E+00	 0.000000E+00	 0.000000E+00	 0.000000E+00	 0.000000E+00	 1.246693E+06	-1.217147E+02	-3.867333E+03	 1.280809E+07	 1.333238E+05	 1.705693E+06	 9.948921E+00	 2.539217E-01	 6.711034E+00	 6.163112E+03	 1.158078E+04
    0.4750	 1.000000E+01	 1.499735E+01	 1.719998E+00	 5.264008E+00	 5.264008E+00	 0.000000E+00	 0.000000E+00	 1.017512E+04	 3.350948E+04	 0.000000E+00	 0.000000E+00	 0.000000E+00	 0.000000E+00	 0.000000E+00	 1.146828E+04	 1.949027E+03	 1.107623E+04	 1.169142E+05	 4.284223E+02	 1.239884E+03	 3.712871E+00	-1.155598E+04	 1.154988E+04	-4.272620E+04	 4.284223E+02	-2.234676E+04	 0.000000E+00	 0.000000E+00	 0.000000E+00	 0.000000E+00	 0.000000E+00	 0.000000E+00	 0.000000E+00	 0.000000E+00	 0.000000E+00	 1.246860E+06	-1.758768E+02	-3.874835E+03	 1.280918E+07	 1.577276E+05	 1.703503E+06	 9.948877E+00	 2.539671E-01	 6.711606E+00	 6.103734E+03	 1.146828E+04
    0.5000	 1.000000E+01	 1.578697E+01	 1.719998E+00	 5.264473E+00	 5.264473E+00	 0.000000E+00	 0.000000E+00	 1.053677E+04	 3.353961E+04	 0.000000E+00	 0.000000E+00	 0.000000E+00	 0.000000E+00	 0.000000E+00	 1.135578E+04	 1.949213E+03	 1.096834E+04	 1.169407E+05	 4.408380E+02	 1.240073E+03	 3.683767E+00	-1.155598E+04	 1.143827E+04	-4.272370E+04	 4.408380E+02	-2.234675E+04	 0.000000E+00	 0.000000E+00	 0.000000E+00	 0.000000E+00	 0.000000E+00	 0.000000E+00	 0.000000E+00	 0.000000E+00	 0.000000E+00	 1.247042E+06	-2.296840E+02	-3.881661E+03	 1.281032E+07	 1.820490E+05	 1.701009E+06	 9.948839E+00	 2.540151E-01	 6.712226E+00	 6.044393E+03	 1.135578E+04
    0.5250	 1.000000E+01	 1.657670E+01	 1.719998E+00	 5.264980E+00	 5.264980E+00	 0.000000E+00	 0.000000E+00	 1.089693E+04	 3.357002E+04	 0.000000E+00	 0.000000E+00	 0.000000E+00	 0.000000E+00	 0.000000E+00	 1.124328E+04	 1.949411E+03	 1.086054E+04	 1.169689E+05	 4.531572E+02	 1.240272E+03	 3.653893E+00	-1.155597E+04	 1.132666E+04	-4.272101E+04	 4.531572E+02	-2.234674E+04	 0.000000E+00	 0.000000E+00	 0.000000E+00	 0.000000E+00	 0.000000E+00	 0.000000E+00	 0.000000E+00	 0.000000E+00	 0.000000E+00	 1.247243E+06	-2.825950E+02	-3.888649E+03	 1.281152E+07	 2.062729E+05	 1.698240E+06	 9.948801E+00	 2.540664E-01	 6.712897E+00	 5.985088E+03	 1.124328E+04
    0.5500	 1.000000E+01	 1.736646E+01	 1.719998E+00	 5.265528E+00	 5.265528E+00	 0.000000E+00	 0.000000E+00	 1.125547E+04	 3.360070E+04	 0.000000E+00	 0.000000E+00	 0.000000E+00	 0.000000E+00	 0.000000E+00	 1.113078E+04	 1.949633E+03	 1.075238E+04	 1.170000E+05	 4.655269E+02	 1.240495E+03	 3.626749E+00	-1.155596E+04	 1.121504E+04	-4.271832E+04	 4.655269E+02	-2.234674E+04	 0.000000E+00	 0.000000E+00	 0.000000E+00	 0.000000E+00	 0.000000E+00	 0.000000E+00	 0.000000E+00	 0.000000E+00	 0.000000E+00	 1.247469E+06	-3.329601E+02	-3.898723E+03	 1.281287E+07	 2.302930E+05	 1.695344E+06	 9.948782E+00	 2.541209E-01	 6.713608E+00	 5.925817E+03	 1.113078E+04
    0.5750	 1.000000E+01	 1.815636E+01	 1.719998E+00	 5.266116E+00	 5.266116E+00	 0.000000E+00	 0.000000E+00	 1.161230E+04	 3.363162E+04	 0.000000E+00	 0.000000E+00	 0.000000E+00	 0.000000E+00	 0.000000E+00	 1.101828E+04	 1.949892E+03	 1.064325E+04	 1.170357E+05	 4.781743E+02	 1.240756E+03	 3.607018E+00	-1.155597E+04	 1.110339E+04	-4.271588E+04	 4.781743E+02	-2.234674E+04	 0.000000E+00	 0.000000E+00	 0.000000E+00	 0.000000E+00	 0.000000E+00	 0.000000E+00	 0.000000E+00	 0.000000E+00	 0.000000E+00	 1.247720E+06	-3.811477E+02	-3.911378E+03	 1.281432E+07	 2.541657E+05	 1.692306E+06	 9.948775E+00	 2.541787E-01	 6.714363E+00	 5.866580E+03	 1.101828E+04
    0.6000	 1.000000E+01	 1.894632E+01	 1.719998E+00	 5.266746E+00	 5.266746E+00	 0.000000E+00	 0.000000E+00	 1.196739E+04	 3.366282E+04	 0.000000E+00	 0.000000E+00	 0.000000E+00	 0.000000E+00	 0.000000E+00	 1.090578E+04	 1.950165E+03	 1.053415E+04	 1.170731E+05	 4.908818E+02	 1.241030E+03	 3.587085E+00	-1.155598E+04	 1.099175E+04	-4.271332E+04	 4.908818E+02	-2.234675E+04	 0.000000E+00	 0.000000E+00	 0.000000E+00	 0.000000E+00	 0.000000E+00	 0.000000E+00	 0.000000E+00	 0.000000E+00	 0.000000E+00	 1.247991E+06	-4.278766E+02	-3.925344E+03	 1.281584E+07	 2.779290E+05	 1.689115E+06	 9.948769E+00	 2.542398E-01	 6.715170E+00	 5.807375E+03	 1.090578E+04
    0.6250	 1.000000E+01	 1.973638E+01	 1.719998E+00	 5.267416E+00	 5.267416E+00	 0.000000E+00	 0.000000E+00	 1.232070E+04	 3.369427E+04	 0.000000E+00	 0.000000E+00	 0.000000E+00	 0.000000E+00	 0.000000E+00	 1.079328E+04	 1.950453E+03	 1.042502E+04	 1.171125E+05	 5.036595E+02	 1.241317E+03	 3.567431E+00	-1.155599E+04	 1.088011E+04	-4.271071E+04	 5.036595E+02	-2.234677E+04	 0.000000E+00	 0.000000E+00	 0.000000E+00	 0.000000E+00	 0.000000E+00	 0.000000E+00	 0.000000E+00	 0.000000E+00	 0.000000E+00	 1.248278E+06	-4.741124E+02	-3.939125E+03	 1.281740E+07	 3.016217E+05	 1.685683E+06	 9.948759E+00	 2.543038E-01	 6.716031E+00	 5.748200E+03	 1.079328E+04
    0.6500	 1.000000E+01	 2.052655E+01	 1.719998E+00	 5.268128E+00	 5.268128E+00	 0.000000E+00	 0.000000E+00	 1.267214E+04	 3.372597E+04	 0.000000E+00	 0.000000E+00	 0.000000E+00	 0.000000E+00	 0.000000E+00	 1.068078E+04	 1.950751E+03	 1.031608E+04	 1.171533E+05	 5.164910E+02	 1.241616E+03	 3.546441E+00	-1.155600E+04	 1.076849E+04	-4.270800E+04	 5.164910E+02	-2.234677E+04	 0.000000E+00	 0.000000E+00	 0.000000E+00	 0.000000E+00	 0.000000E+00	 0.000000E+00	 0.000000E+00	 0.000000E+00	 0.000000E+00	 1.248575E+06	-5.208099E+02	-3.951304E+03	 1.281893E+07	 3.253770E+05	 1.682061E+06	 9.948737E+00	 2.543701E-01	 6.716954E+00	 5.689054E+03	 1.068078E+04
    0.6750	 1.000000E+01	 2.131683E+01	 1.719998E+00	 5.268881E+00	 5.268881E+00	 0.000000E+00	 0.000000E+00	 1.302169E+04	 3.375792E+04	 0.000000E+00	 0.000000E+00	 0.000000E+00	 0.000000E+00	 0.000000E+00	 1.056828E+04	 1.951054E+03	 1.020744E+04	 1.171949E+05	 5.297506E+02	 1.241919E+03	 3.523492E+00	-1.155601E+04	 1.065693E+04	-4.270509E+04	 5.297506E+02	-2.234678E+04	 0.000000E+00	 0.000000E+00	 0.000000E+00	 0.000000E+00	 0.000000E+00	 0.000000E+00	 0.000000E+00	 0.000000E+00	 0.000000E+00	 1.248877E+06	-5.689401E+02	-3.960901E+03	 1.282033E+07	 3.493592E+05	 1.678491E+06	 9.948714E+00	 2.544360E-01	 6.717930E+00	 5.629936E+03	 1.056828E+04
    0.7000	 1.000000E+01	 2.210722E+01	 1.719998E+00	 5.269675E+00	 5.269675E+00	 0.000000E+00	 0.000000E+00	 1.336930E+04	 3.379013E+04	 0.000000E+00	 0.000000E+00	 0.000000E+00	 0.000000E+00	 0.000000E+00	 1.045578E+04	 1.951355E+03	 1.009935E+04	 1.172365E+05	 5.438975E+02	 1.242222E+03	 3.497188E+00	-1.155602E+04	 1.054549E+04	-4.270202E+04	 5.438975E+02	-2.234679E+04	 0.000000E+00	 0.000000E+00	 0.000000E+00	 0.000000E+00	 0.000000E+00	 0.000000E+00	 0.000000E+00	 0.000000E+00	 0.000000E+00	 1.249191E+06	-6.176919E+02	-3.964686E+03	 1.282192E+07	 3.729992E+05	 1.673904E+06	 9.948725E+00	 2.545051E-01	 6.718935E+00	 5.570845E+03	 1.045578E+04
    0.7250	 1.000000E+01	 2.289772E+01	 1.719998E+00	 5.270510E+00	 5.270510E+00	 0.000000E+00	 0.000000E+00	 1.371458E+04	 3.382257E+04	 0.000000E+00	 0.000000E+00	 0.000000E+00	 0.000000E+00	 0.000000E+00	 1.034328E+04	 1.951688E+03	 9.991304E+03	 1.172824E+05	 5.548028E+02	 1.242557E+03	 3.468066E+00	-1.155602E+04	 1.043372E+04	-4.269889E+04	 5.548028E+02	-2.234679E+04	 0.000000E+00	 0.000000E+00	 0.000000E+00	 0.000000E+00	 0.000000E+00	 0.000000E+00	 0.000000E+00	 0.000000E+00	 0.000000E+00	 1.249516E+06	-6.671916E+02	-3.964101E+03	 1.282358E+07	 3.965201E+05	 1.668733E+06	 9.948728E+00	 2.545782E-01	 6.719998E+00	 5.511778E+03	 1.034328E+04
    0.7500	 1.000000E+01	 2.368835E+01	 1.719998E+00	 5.271386E+00	 5.271386E+00	 0.000000E+00	 0.000000E+00	 1.405785E+04	 3.385526E+04	 0.000000E+00	 0.000000E+00	 0.000000E+00	 0.000000E+00	 0.000000E+00	 1.023078E+04	 1.952022E+03	 9.883571E+03	 1.173284E+05	 5.674764E+02	 1.242892E+03	 3.437963E+00	-1.155602E+04	 1.032215E+04	-4.269559E+04	 5.674764E+02	-2.234680E+04	 0.000000E+00	 0.000000E+00	 0.000000E+00	 0.000000E+00	 0.000000E+00	 0.000000E+00	 0.000000E+00	 0.000000E+00	 0.000000E+00	 1.249856E+06	-7.161841E+02	-3.962184E+03	 1.282532E+07	 4.199010E+05	 1.663214E+06	 9.948729E+00	 2.546550E-01	 6.721115E+00	 5.452734E+03	 1.023078E+04
    0.7750	 1.000000E+01	 2.447915E+01	 1.719998E+00	 5.272304E+00	 5.272304E+00	 0.000000E+00	 0.000000E+00	 1.439883E+04	 3.388817E+04	 0.000000E+00	 0.000000E+00	 0.000000E+00	 0.000000E+00	 0.000000E+00	 1.011828E+04	 1.952384E+03	 9.775320E+03	 1.173779E+05	 5.800767E+02	 1.243255E+03	 3.411649E+00	-1.155604E+04	 1.021054E+04	-4.269242E+04	 5.800767E+02	-2.234681E+04	 0.000000E+00	 0.000000E+00	 0.000000E+00	 0.000000E+00	 0.000000E+00	 0.000000E+00	 0.000000E+00	 0.000000E+00	 0.000000E+00	 1.250213E+06	-7.647039E+02	-3.959106E+03	 1.282714E+07	 4.431531E+05	 1.657337E+06	 9.948718E+00	 2.547364E-01	 6.722291E+00	 5.393713E+03	 1.011828E+04
    0.8000	 1.000000E+01	 2.527006E+01	 1.719998E+00	 5.273263E+00	 5.273263E+00	 0.000000E+00	 0.000000E+00	 1.473753E+04	 3.392132E+04	 0.000000E+00	 0.000000E+00	 0.000000E+00	 0.000000E+00	 0.000000E+00	 1.000578E+04	 1.952757E+03	 9.667332E+03	 1.174290E+05	 5.924836E+02	 1.243629E+03	 3.383239E+00	-1.155604E+04	 1.009893E+04	-4.268905E+04	 5.924836E+02	-2.234682E+04	 0.000000E+00	 0.000000E+00	 0.000000E+00	 0.000000E+00	 0.000000E+00	 0.000000E+00	 0.000000E+00	 0.000000E+00	 0.000000E+00	 1.250586E+06	-8.126711E+02	-3.954810E+03	 1.282905E+07	 4.662579E+05	 1.651138E+06	 9.948710E+00	 2.548211E-01	 6.723519E+00	 5.334713E+03	 1.000578E+04
    0.8250	 1.000000E+01	 2.606113E+01	 1.719998E+00	 5.274262E+00	 5.274262E+00	 0.000000E+00	 0.000000E+00	 1.507384E+04	 3.395468E+04	 0.000000E+00	 0.000000E+00	 0.000000E+00	 0.000000E+00	 0.000000E+00	 9.893275E+03	 1.953146E+03	 9.559333E+03	 1.174821E+05	 6.048306E+02	 1.244019E+03	 3.354862E+00	-1.155605E+04	 9.987310E+03	-4.268568E+04	 6.048306E+02	-2.234683E+04	 0.000000E+00	 0.000000E+00	 0.000000E+00	 0.000000E+00	 0.000000E+00	 0.000000E+00	 0.000000E+00	 0.000000E+00	 0.000000E+00	 1.250975E+06	-8.601979E+02	-3.949373E+03	 1.283101E+07	 4.892239E+05	 1.644617E+06	 9.948689E+00	 2.549101E-01	 6.724807E+00	 5.275733E+03	 9.893276E+03
    0.8500	 1.000000E+01	 2.685234E+01	 1.719998E+00	 5.275303E+00	 5.275303E+00	 0.000000E+00	 0.000000E+00	 1.540771E+04	 3.398828E+04	 0.000000E+00	 0.000000E+00	 0.000000E+00	 0.000000E+00	 0.000000E+00	 9.780776E+03	 1.953550E+03	 9.451466E+03	 1.175373E+05	 6.171790E+02	 1.244424E+03	 3.325513E+00	-1.155607E+04	 9.875698E+03	-4.268220E+04	 6.171790E+02	-2.234684E+04	 0.000000E+00	 0.000000E+00	 0.000000E+00	 0.000000E+00	 0.000000E+00	 0.000000E+00	 0.000000E+00	 0.000000E+00	 0.000000E+00	 1.251380E+06	-9.072606E+02	-3.942849E+03	 1.283304E+07	 5.120763E+05	 1.637776E+06	 9.948663E+00	 2.550027E-01	 6.726153E+00	 5.216770E+03	 9.780776E+03
    0.8750	 1.000000E+01	 2.764371E+01	 1.719998E+00	 5.276386E+00	 5.276386E+00	 0.000000E+00	 0.000000E+00	 1.573908E+04	 3.402211E+04	 0.000000E+00	 0.000000E+00	 0.000000E+00	 0.000000E+00	 0.000000E+00	 9.668276E+03	 1.953971E+03	 9.343597E+03	 1.175947E+05	 6.295339E+02	 1.244846E+03	 3.296193E+00	-1.155608E+04	 9.764089E+03	-4.267864E+04	 6.295339E+02	-2.234685E+04	 0.000000E+00	 0.000000E+00	 0.000000E+00	 0.000000E+00	 0.000000E+00	 0.000000E+00	 0.000000E+00	 0.000000E+00	 0.000000E+00	 1.251800E+06	-9.538865E+02	-3.935196E+03	 1.283514E+07	 5.347712E+05	 1.630614E+06	 9.948630E+00	 2.550993E-01	 6.727555E+00	 5.157824E+03	 9.668276E+03
    0.9000	 1.000000E+01	 2.843525E+01	 1.719998E+00	 5.277510E+00	 5.277510E+00	 0.000000E+00	 0.000000E+00	 1.606787E+04	 3.405611E+04	 0.000000E+00	 0.000000E+00	 0.000000E+00	 0.000000E+00	 0.000000E+00	 9.555776E+03	 1.954407E+03	 9.235771E+03	 1.176540E+05	 6.418724E+02	 1.245283E+03	 3.266527E+00	-1.155609E+04	 9.652478E+03	-4.267506E+04	 6.418724E+02	-2.234687E+04	 0.000000E+00	 0.000000E+00	 0.000000E+00	 0.000000E+00	 0.000000E+00	 0.000000E+00	 0.000000E+00	 0.000000E+00	 0.000000E+00	 1.252237E+06	-9.996434E+02	-3.926374E+03	 1.283727E+07	 5.572520E+05	 1.623152E+06	 9.948587E+00	 2.551992E-01	 6.729017E+00	 5.098894E+03	 9.555776E+03
    0.9250	 1.000000E+01	 2.922698E+01	 1.719998E+00	 5.278675E+00	 5.278675E+00	 0.000000E+00	 0.000000E+00	 1.639397E+04	 3.409015E+04	 0.000000E+00	 0.000000E+00	 0.000000E+00	 0.000000E+00	 0.000000E+00	 9.443276E+03	 1.954860E+03	 9.127875E+03	 1.177154E+05	 6.540780E+02	 1.245737E+03	 3.237272E+00	-1.155611E+04	 9.540851E+03	-4.267155E+04	 6.540780E+02	-2.234688E+04	 0.000000E+00	 0.000000E+00	 0.000000E+00	 0.000000E+00	 0.000000E+00	 0.000000E+00	 0.000000E+00	 0.000000E+00	 0.000000E+00	 1.252689E+06	-1.044531E+03	-3.916388E+03	 1.283943E+07	 5.795099E+05	 1.615384E+06	 9.948536E+00	 2.553025E-01	 6.730538E+00	 5.039977E+03	 9.443276E+03
    0.9500	 1.000000E+01	 3.001887E+01	 1.719998E+00	 5.279881E+00	 5.279881E+00	 0.000000E+00	 0.000000E+00	 1.671737E+04	 3.412433E+04	 0.000000E+00	 0.000000E+00	 0.000000E+00	 0.000000E+00	 0.000000E+00	 9.330776E+03	 1.955327E+03	 9.019906E+03	 1.177786E+05	 6.662462E+02	 1.246205E+03	 3.208530E+00	-1.155613E+04	 9.429216E+03	-4.266802E+04	 6.662462E+02	-2.234690E+04	 0.000000E+00	 0.000000E+00	 0.000000E+00	 0.000000E+00	 0.000000E+00	 0.000000E+00	 0.000000E+00	 0.000000E+00	 0.000000E+00	 1.253157E+06	-1.088707E+03	-3.905279E+03	 1.284163E+07	 6.016158E+05	 1.607330E+06	 9.948471E+00	 2.554097E-01	 6.732120E+00	 4.981073E+03	 9.330776E+03
    0.9750	 1.000000E+01	 3.081093E+01	 1.719998E+00	 5.281129E+00	 5.281129E+00	 0.000000E+00	 0.000000E+00	 1.703799E+04	 3.415892E+04	 0.000000E+00	 0.000000E+00	 0.000000E+00	 0.000000E+00	 0.000000E+00	 9.218275E+03	 1.955812E+03	 8.912098E+03	 1.178444E+05	 6.785265E+02	 1.246690E+03	 3.178688E+00	-1.155614E+04	 9.317600E+03	-4.266422E+04	 6.785265E+02	-2.234692E+04	 0.000000E+00	 0.000000E+00	 0.000000E+00	 0.000000E+00	 0.000000E+00	 0.000000E+00	 0.000000E+00	 0.000000E+00	 0.000000E+00	 1.253641E+06	-1.132269E+03	-3.893027E+03	 1.284387E+07	 6.235961E+05	 1.598982E+06	 9.948400E+00	 2.555201E-01	 6.733759E+00	 4.922180E+03	 9.218276E+03
    1.0000	 1.000000E+01	 3.160320E+01	 1.719998E+00	 5.282419E+00	 5.282419E+00	 0.000000E+00	 0.000000E+00	 1.735576E+04	 3.419361E+04	 0.000000E+00	 0.000000E+00	 0.000000E+00	 0.000000E+00	 0.000000E+00	 9.105776E+03	 1.956312E+03	 8.804330E+03	 1.179119E+05	 6.907572E+02	 1.247190E+03	 3.148504E+00	-1.155616E+04	 9.205981E+03	-4.266046E+04	 6.907572E+02	-2.234694E+04	 0.000000E+00	 0.000000E+00	 0.000000E+00	 0.000000E+00	 0.000000E+00	 0.000000E+00	 0.000000E+00	 0.000000E+00	 0.000000E+00	 1.254141E+06	-1.175436E+03	-3.879523E+03	 1.284618E+07	 6.453948E+05	 1.590324E+06	 9.948306E+00	 2.556355E-01	 6.735467E+00	 4.863296E+03	 9.105776E+03
    1.0250	 1.000000E+01	 3.239567E+01	 1.719998E+00	 5.283750E+00	 5.283750E+00	 0.000000E+00	 0.000000E+00	 1.767062E+04	 3.422848E+04	 0.000000E+00	 0.000000E+00	 0.000000E+00	 0.000000E+00	 0.000000E+00	 8.993276E+03	 1.956827E+03	 8.696688E+03	 1.179816E+05	 7.029240E+02	 1.247707E+03	 3.117337E+00	-1.155618E+04	 9.094363E+03	-4.265663E+04	 7.029240E+02	-2.234696E+04	 0.000000E+00	 0.000000E+00	 0.000000E+00	 0.000000E+00	 0.000000E+00	 0.000000E+00	 0.000000E+00	 0.000000E+00	 0.000000E+00	 1.254656E+06	-1.218206E+03	-3.864801E+03	 1.284851E+07	 6.670327E+05	 1.581381E+06	 9.948198E+00	 2.557547E-01	 6.737237E+00	 4.804421E+03	 8.993276E+03
    1.0500	 1.000000E+01	 3.318832E+01	 1.719998E+00	 5.285122E+00	 5.285122E+00	 0.000000E+00	 0.000000E+00	 1.798251E+04	 3.426354E+04	 0.000000E+00	 0.000000E+00	 0.000000E+00	 0.000000E+00	 0.000000E+00	 8.880776E+03	 1.957358E+03	 8.589083E+03	 1.180533E+05	 7.151362E+02	 1.248238E+03	 3.085935E+00	-1.155620E+04	 8.982754E+03	-4.265273E+04	 7.151362E+02	-2.234698E+04	 0.000000E+00	 0.000000E+00	 0.000000E+00	 0.000000E+00	 0.000000E+00	 0.000000E+00	 0.000000E+00	 0.000000E+00	 0.000000E+00	 1.255188E+06	-1.258956E+03	-3.848771E+03	 1.285083E+07	 6.884348E+05	 1.572141E+06	 9.948073E+00	 2.558769E-01	 6.739072E+00	 4.745553E+03	 8.880776E+03
    1.0750	 1.000000E+01	 3.398120E+01	 1.719998E+00	 5.286536E+00	 5.286536E+00	 0.000000E+00	 0.000000E+00	 1.829124E+04	 3.429854E+04	 0.000000E+00	 0.000000E+00	 0.000000E+00	 0.000000E+00	 0.000000E+00	 8.768277E+03	 1.957907E+03	 8.481031E+03	 1.181274E+05	 7.271323E+02	 1.248789E+03	 3.057684E+00	-1.155622E+04	 8.871097E+03	-4.264888E+04	 7.271323E+02	-2.234700E+04	 0.000000E+00	 0.000000E+00	 0.000000E+00	 0.000000E+00	 0.000000E+00	 0.000000E+00	 0.000000E+00	 0.000000E+00	 0.000000E+00	 1.255735E+06	-1.299167E+03	-3.831319E+03	 1.285316E+07	 7.096434E+05	 1.562627E+06	 9.947926E+00	 2.560031E-01	 6.740974E+00	 4.686691E+03	 8.768276E+03