
Linearized model: Predictions were generated on 04-Mar-2024 at 18:12:38 using OpenFAST, compiled as a 64-bit application using single precision at commit v3.5.2
 linked with  NWTC Subroutine Library; ElastoDyn; InflowWind; AeroDyn; ServoDyn; HydroDyn; MAP++ (<1.20.10>, <Jan-19-2024>)

Description from the FAST input file: FAST Certification Test #24: NREL 5.0 MW Baseline Wind Turbine with OC3 Hywind Configuration, for use in offshore analysis

Simulation information:
   Simulation time:                  1728.8625 s
   Rotor Speed:                         1.2673 rad/s
   Azimuth:                             4.5412 rad
   Wind Speed:                         13.0000 m/s
   Number of continuous states:        66
   Number of discrete states:           0
   Number of constraint states:         0
   Number of inputs:                   67
   Number of outputs:                 140
   Jacobians included in this file?    No

Order of continuous states:
   Row/Column Operating Point                                    Rotating Frame? Derivative Order Description
   ---------- ---------------                                    --------------- ---------------- -----------
          1     3.3183720E-02                                           F               2         ED Platform pitch tilt rotation DOF (internal DOF index = DOF_P), rad
          2     2.9489556E-01                                           F               2         ED 1st tower fore-aft bending mode DOF (internal DOF index = DOF_TFA1), m
          3     2.9703858E+00                                           F               2         ED Variable speed generator DOF (internal DOF index = DOF_GeAz), rad
          4     3.3478920E+00                                           T               2         ED 1st flapwise bending-mode DOF of blade 1 (internal DOF index = DOF_BF(1,1)), m
          5     4.2697639E+00                                           T               2         ED 1st flapwise bending-mode DOF of blade 2 (internal DOF index = DOF_BF(2,1)), m
          6     3.7842641E+00                                           T               2         ED 1st flapwise bending-mode DOF of blade 3 (internal DOF index = DOF_BF(3,1)), m
          7    -4.6515055E-07                                           F               2         ED First time derivative of Platform pitch tilt rotation DOF (internal DOF index = DOF_P), rad/s
          8    -1.0306853E-03                                           F               2         ED First time derivative of 1st tower fore-aft bending mode DOF (internal DOF index = DOF_TFA1), m/s
          9     1.2672548E+00                                           F               2         ED First time derivative of Variable speed generator DOF (internal DOF index = DOF_GeAz), rad/s
         10     6.1851102E-01                                           T               2         ED First time derivative of 1st flapwise bending-mode DOF of blade 1 (internal DOF index = DOF_BF(1,1)), m/s
         11     3.5728535E-01                                           T               2         ED First time derivative of 1st flapwise bending-mode DOF of blade 2 (internal DOF index = DOF_BF(2,1)), m/s
         12    -9.8032033E-01                                           T               2         ED First time derivative of 1st flapwise bending-mode DOF of blade 3 (internal DOF index = DOF_BF(3,1)), m/s
         13     0.0000000E+00                                           F               1         HD ExctnPtfmSg1
         14     0.0000000E+00                                           F               1         HD ExctnPtfmSg2
         15     0.0000000E+00                                           F               1         HD ExctnPtfmSg3
         16     0.0000000E+00                                           F               1         HD ExctnPtfmSg4
         17     0.0000000E+00                                           F               1         HD ExctnPtfmSg5
         18     0.0000000E+00                                           F               1         HD ExctnPtfmSg6
         19     0.0000000E+00                                           F               1         HD ExctnPtfmSg7
         20     0.0000000E+00                                           F               1         HD ExctnPtfmSg8
         21     0.0000000E+00                                           F               1         HD ExctnPtfmSw1
         22     0.0000000E+00                                           F               1         HD ExctnPtfmSw2
         23     0.0000000E+00                                           F               1         HD ExctnPtfmHv1
         24     0.0000000E+00                                           F               1         HD ExctnPtfmHv2
         25     0.0000000E+00                                           F               1         HD ExctnPtfmHv3
         26     0.0000000E+00                                           F               1         HD ExctnPtfmHv4
         27     0.0000000E+00                                           F               1         HD ExctnPtfmHv5
         28     0.0000000E+00                                           F               1         HD ExctnPtfmHv6
         29     0.0000000E+00                                           F               1         HD ExctnPtfmHv7
         30     0.0000000E+00                                           F               1         HD ExctnPtfmHv8
         31     0.0000000E+00                                           F               1         HD ExctnPtfmR1
         32     0.0000000E+00                                           F               1         HD ExctnPtfmR2
         33     0.0000000E+00                                           F               1         HD ExctnPtfmR3
         34     0.0000000E+00                                           F               1         HD ExctnPtfmR4
         35     0.0000000E+00                                           F               1         HD ExctnPtfmR5
         36     0.0000000E+00                                           F               1         HD ExctnPtfmR6
         37     0.0000000E+00                                           F               1         HD ExctnPtfmR7
         38     0.0000000E+00                                           F               1         HD ExctnPtfmR8
         39     0.0000000E+00                                           F               1         HD ExctnPtfmP1
         40     0.0000000E+00                                           F               1         HD ExctnPtfmP2
         41     0.0000000E+00                                           F               1         HD ExctnPtfmP3
         42     0.0000000E+00                                           F               1         HD ExctnPtfmP4
         43     0.0000000E+00                                           F               1         HD ExctnPtfmP5
         44     0.0000000E+00                                           F               1         HD ExctnPtfmP6
         45     0.0000000E+00                                           F               1         HD ExctnPtfmP7
         46     0.0000000E+00                                           F               1         HD ExctnPtfmP8
         47     0.0000000E+00                                           F               1         HD ExctnPtfmY1
         48     0.0000000E+00                                           F               1         HD ExctnPtfmY2
         49     0.0000000E+00                                           F               1         HD RdtnPtfmSg1
         50     0.0000000E+00                                           F               1         HD RdtnPtfmSg2
         51     0.0000000E+00                                           F               1         HD RdtnPtfmSg3
         52     0.0000000E+00                                           F               1         HD RdtnPtfmSg4
         53     0.0000000E+00                                           F               1         HD RdtnPtfmSw1
         54     0.0000000E+00                                           F               1         HD RdtnPtfmSw2
         55     0.0000000E+00                                           F               1         HD RdtnPtfmSw3
         56     0.0000000E+00                                           F               1         HD RdtnPtfmSw4
         57     0.0000000E+00                                           F               1         HD RdtnPtfmHv1
         58     0.0000000E+00                                           F               1         HD RdtnPtfmHv2
         59     0.0000000E+00                                           F               1         HD RdtnPtfmR1
         60     0.0000000E+00                                           F               1         HD RdtnPtfmR2
         61     0.0000000E+00                                           F               1         HD RdtnPtfmR3
         62     0.0000000E+00                                           F               1         HD RdtnPtfmR4
         63    -9.5701012E-07                                           F               1         HD RdtnPtfmP1
         64    -1.9315141E-06                                           F               1         HD RdtnPtfmP2
         65    -5.5802093E-07                                           F               1         HD RdtnPtfmP3
         66    -1.0065191E-06                                           F               1         HD RdtnPtfmP4

Order of continuous state derivatives:
   Row/Column Operating Point                                    Rotating Frame? Derivative Order Description
   ---------- ---------------                                    --------------- ---------------- -----------
          1    -4.6515055E-07                                           F               2         First time derivative of ED Platform pitch tilt rotation DOF (internal DOF index = DOF_P), rad/s
          2    -1.0306853E-03                                           F               2         First time derivative of ED 1st tower fore-aft bending mode DOF (internal DOF index = DOF_TFA1), m/s
          3     1.2672548E+00                                           F               2         First time derivative of ED Variable speed generator DOF (internal DOF index = DOF_GeAz), rad/s
          4     6.1851102E-01                                           T               2         First time derivative of ED 1st flapwise bending-mode DOF of blade 1 (internal DOF index = DOF_BF(1,1)), m/s
          5     3.5728535E-01                                           T               2         First time derivative of ED 1st flapwise bending-mode DOF of blade 2 (internal DOF index = DOF_BF(2,1)), m/s
          6    -9.8032033E-01                                           T               2         First time derivative of ED 1st flapwise bending-mode DOF of blade 3 (internal DOF index = DOF_BF(3,1)), m/s
          7     3.4783188E-06                                           F               2         First time derivative of ED First time derivative of Platform pitch tilt rotation DOF (internal DOF index = DOF_P), rad/s/s
          8    -1.4028673E-03                                           F               2         First time derivative of ED First time derivative of 1st tower fore-aft bending mode DOF (internal DOF index = DOF_TFA1), m/s/s
          9     1.6518369E-03                                           F               2         First time derivative of ED First time derivative of Variable speed generator DOF (internal DOF index = DOF_GeAz), rad/s/s
         10    -3.4666196E-02                                           T               2         First time derivative of ED First time derivative of 1st flapwise bending-mode DOF of blade 1 (internal DOF index = DOF_BF(1,1)), m/s/s
         11    -5.7004440E-01                                           T               2         First time derivative of ED First time derivative of 1st flapwise bending-mode DOF of blade 2 (internal DOF index = DOF_BF(2,1)), m/s/s
         12    -3.5410595E-01                                           T               2         First time derivative of ED First time derivative of 1st flapwise bending-mode DOF of blade 3 (internal DOF index = DOF_BF(3,1)), m/s/s
         13     0.0000000E+00                                           F               1         First time derivative of HD ExctnPtfmSg1/s
         14     0.0000000E+00                                           F               1         First time derivative of HD ExctnPtfmSg2/s
         15     0.0000000E+00                                           F               1         First time derivative of HD ExctnPtfmSg3/s
         16     0.0000000E+00                                           F               1         First time derivative of HD ExctnPtfmSg4/s
         17     0.0000000E+00                                           F               1         First time derivative of HD ExctnPtfmSg5/s
         18     0.0000000E+00                                           F               1         First time derivative of HD ExctnPtfmSg6/s
         19     0.0000000E+00                                           F               1         First time derivative of HD ExctnPtfmSg7/s
         20     0.0000000E+00                                           F               1         First time derivative of HD ExctnPtfmSg8/s
         21     0.0000000E+00                                           F               1         First time derivative of HD ExctnPtfmSw1/s
         22     0.0000000E+00                                           F               1         First time derivative of HD ExctnPtfmSw2/s
         23     0.0000000E+00                                           F               1         First time derivative of HD ExctnPtfmHv1/s
         24     0.0000000E+00                                           F               1         First time derivative of HD ExctnPtfmHv2/s
         25     0.0000000E+00                                           F               1         First time derivative of HD ExctnPtfmHv3/s
         26     0.0000000E+00                                           F               1         First time derivative of HD ExctnPtfmHv4/s
         27     0.0000000E+00                                           F               1         First time derivative of HD ExctnPtfmHv5/s
         28     0.0000000E+00                                           F               1         First time derivative of HD ExctnPtfmHv6/s
         29     0.0000000E+00                                           F               1         First time derivative of HD ExctnPtfmHv7/s
         30     0.0000000E+00                                           F               1         First time derivative of HD ExctnPtfmHv8/s
         31     0.0000000E+00                                           F               1         First time derivative of HD ExctnPtfmR1/s
         32     0.0000000E+00                                           F               1         First time derivative of HD ExctnPtfmR2/s
         33     0.0000000E+00                                           F               1         First time derivative of HD ExctnPtfmR3/s
         34     0.0000000E+00                                           F               1         First time derivative of HD ExctnPtfmR4/s
         35     0.0000000E+00                                           F               1         First time derivative of HD ExctnPtfmR5/s
         36     0.0000000E+00                                           F               1         First time derivative of HD ExctnPtfmR6/s
         37     0.0000000E+00                                           F               1         First time derivative of HD ExctnPtfmR7/s
         38     0.0000000E+00                                           F               1         First time derivative of HD ExctnPtfmR8/s
         39     0.0000000E+00                                           F               1         First time derivative of HD ExctnPtfmP1/s
         40     0.0000000E+00                                           F               1         First time derivative of HD ExctnPtfmP2/s
         41     0.0000000E+00                                           F               1         First time derivative of HD ExctnPtfmP3/s
         42     0.0000000E+00                                           F               1         First time derivative of HD ExctnPtfmP4/s
         43     0.0000000E+00                                           F               1         First time derivative of HD ExctnPtfmP5/s
         44     0.0000000E+00                                           F               1         First time derivative of HD ExctnPtfmP6/s
         45     0.0000000E+00                                           F               1         First time derivative of HD ExctnPtfmP7/s
         46     0.0000000E+00                                           F               1         First time derivative of HD ExctnPtfmP8/s
         47     0.0000000E+00                                           F               1         First time derivative of HD ExctnPtfmY1/s
         48     0.0000000E+00                                           F               1         First time derivative of HD ExctnPtfmY2/s
         49     0.0000000E+00                                           F               1         First time derivative of HD RdtnPtfmSg1/s
         50     0.0000000E+00                                           F               1         First time derivative of HD RdtnPtfmSg2/s
         51     0.0000000E+00                                           F               1         First time derivative of HD RdtnPtfmSg3/s
         52     0.0000000E+00                                           F               1         First time derivative of HD RdtnPtfmSg4/s
         53     0.0000000E+00                                           F               1         First time derivative of HD RdtnPtfmSw1/s
         54     0.0000000E+00                                           F               1         First time derivative of HD RdtnPtfmSw2/s
         55     0.0000000E+00                                           F               1         First time derivative of HD RdtnPtfmSw3/s
         56     0.0000000E+00                                           F               1         First time derivative of HD RdtnPtfmSw4/s
         57     0.0000000E+00                                           F               1         First time derivative of HD RdtnPtfmHv1/s
         58     0.0000000E+00                                           F               1         First time derivative of HD RdtnPtfmHv2/s
         59     0.0000000E+00                                           F               1         First time derivative of HD RdtnPtfmR1/s
         60     0.0000000E+00                                           F               1         First time derivative of HD RdtnPtfmR2/s
         61     0.0000000E+00                                           F               1         First time derivative of HD RdtnPtfmR3/s
         62     0.0000000E+00                                           F               1         First time derivative of HD RdtnPtfmR4/s
         63     7.6560934E-07                                           F               1         First time derivative of HD RdtnPtfmP1/s
         64    -9.5701012E-07                                           F               1         First time derivative of HD RdtnPtfmP2/s
         65     8.6486887E-07                                           F               1         First time derivative of HD RdtnPtfmP3/s
         66    -5.5802093E-07                                           F               1         First time derivative of HD RdtnPtfmP4/s

Order of inputs:
     Column   Operating Point                                    Rotating Frame? Derivative Order Description
   ---------- ---------------                                    --------------- ---------------- -----------
          1     1.3000000E+01                                           F               0         IfW Extended input: horizontal wind speed (steady/uniform wind), m/s
          2     2.0000000E-01                                           F               0         IfW Extended input: vertical power-law shear exponent, -
          3     0.0000000E+00                                           F               0         IfW Extended input: propagation direction, rad
          4     1.0226076E-01                                           T               0         ED Blade 1 pitch command, rad
          5     1.0226076E-01                                           T               0         ED Blade 2 pitch command, rad
          6     1.0226076E-01                                           T               0         ED Blade 3 pitch command, rad
          7     0.0000000E+00                                           F               0         ED Yaw moment, Nm
          8     4.3094000E+04                                           F               0         ED Generator torque, Nm
          9     1.0226076E-01                                           F               0         ED Extended input: collective blade-pitch command, rad
         10     0.0000000E+00                                           T               0         AD User property on blade 1, node 1, -
         11     0.0000000E+00                                           T               0         AD User property on blade 1, node 2, -
         12     0.0000000E+00                                           T               0         AD User property on blade 1, node 3, -
         13     0.0000000E+00                                           T               0         AD User property on blade 1, node 4, -
         14     0.0000000E+00                                           T               0         AD User property on blade 1, node 5, -
         15     0.0000000E+00                                           T               0         AD User property on blade 1, node 6, -
         16     0.0000000E+00                                           T               0         AD User property on blade 1, node 7, -
         17     0.0000000E+00                                           T               0         AD User property on blade 1, node 8, -
         18     0.0000000E+00                                           T               0         AD User property on blade 1, node 9, -
         19     0.0000000E+00                                           T               0         AD User property on blade 1, node 10, -
         20     0.0000000E+00                                           T               0         AD User property on blade 1, node 11, -
         21     0.0000000E+00                                           T               0         AD User property on blade 1, node 12, -
         22     0.0000000E+00                                           T               0         AD User property on blade 1, node 13, -
         23     0.0000000E+00                                           T               0         AD User property on blade 1, node 14, -
         24     0.0000000E+00                                           T               0         AD User property on blade 1, node 15, -
         25     0.0000000E+00                                           T               0         AD User property on blade 1, node 16, -
         26     0.0000000E+00                                           T               0         AD User property on blade 1, node 17, -
         27     0.0000000E+00                                           T               0         AD User property on blade 1, node 18, -
         28     0.0000000E+00                                           T               0         AD User property on blade 1, node 19, -
         29     0.0000000E+00                                           T               0         AD User property on blade 2, node 1, -
         30     0.0000000E+00                                           T               0         AD User property on blade 2, node 2, -
         31     0.0000000E+00                                           T               0         AD User property on blade 2, node 3, -
         32     0.0000000E+00                                           T               0         AD User property on blade 2, node 4, -
         33     0.0000000E+00                                           T               0         AD User property on blade 2, node 5, -
         34     0.0000000E+00                                           T               0         AD User property on blade 2, node 6, -
         35     0.0000000E+00                                           T               0         AD User property on blade 2, node 7, -
         36     0.0000000E+00                                           T               0         AD User property on blade 2, node 8, -
         37     0.0000000E+00                                           T               0         AD User property on blade 2, node 9, -
         38     0.0000000E+00                                           T               0         AD User property on blade 2, node 10, -
         39     0.0000000E+00                                           T               0         AD User property on blade 2, node 11, -
         40     0.0000000E+00                                           T               0         AD User property on blade 2, node 12, -
         41     0.0000000E+00                                           T               0         AD User property on blade 2, node 13, -
         42     0.0000000E+00                                           T               0         AD User property on blade 2, node 14, -
         43     0.0000000E+00                                           T               0         AD User property on blade 2, node 15, -
         44     0.0000000E+00                                           T               0         AD User property on blade 2, node 16, -
         45     0.0000000E+00                                           T               0         AD User property on blade 2, node 17, -
         46     0.0000000E+00                                           T               0         AD User property on blade 2, node 18, -
         47     0.0000000E+00                                           T               0         AD User property on blade 2, node 19, -
         48     0.0000000E+00                                           T               0         AD User property on blade 3, node 1, -
         49     0.0000000E+00                                           T               0         AD User property on blade 3, node 2, -
         50     0.0000000E+00                                           T               0         AD User property on blade 3, node 3, -
         51     0.0000000E+00                                           T               0         AD User property on blade 3, node 4, -
         52     0.0000000E+00                                           T               0         AD User property on blade 3, node 5, -
         53     0.0000000E+00                                           T               0         AD User property on blade 3, node 6, -
         54     0.0000000E+00                                           T               0         AD User property on blade 3, node 7, -
         55     0.0000000E+00                                           T               0         AD User property on blade 3, node 8, -
         56     0.0000000E+00                                           T               0         AD User property on blade 3, node 9, -
         57     0.0000000E+00                                           T               0         AD User property on blade 3, node 10, -
         58     0.0000000E+00                                           T               0         AD User property on blade 3, node 11, -
         59     0.0000000E+00                                           T               0         AD User property on blade 3, node 12, -
         60     0.0000000E+00                                           T               0         AD User property on blade 3, node 13, -
         61     0.0000000E+00                                           T               0         AD User property on blade 3, node 14, -
         62     0.0000000E+00                                           T               0         AD User property on blade 3, node 15, -
         63     0.0000000E+00                                           T               0         AD User property on blade 3, node 16, -
         64     0.0000000E+00                                           T               0         AD User property on blade 3, node 17, -
         65     0.0000000E+00                                           T               0         AD User property on blade 3, node 18, -
         66     0.0000000E+00                                           T               0         AD User property on blade 3, node 19, -
         67     0.0000000E+00                                           F               0         HD Extended input: wave elevation at platform ref point, m

Order of outputs:
        Row   Operating Point                                    Rotating Frame? Derivative Order Description
   ---------- ---------------                                    --------------- ---------------- -----------
          1     1.3000000E+01                                           F               0         IfW Wind1VelX, (m/s)
          2     0.0000000E+00                                           F               0         IfW Wind1VelY, (m/s)