
FAST Summary File

Predictions were generated on 26-Feb-2024 at 16:37:31 using OpenFAST, compiled as a 64-bit application using single precision at commit Unversioned from 8e9c079e31d2cc1ac0f918288f98bdc745f85648
  compiled with
    NWTC Subroutine Library
    ElastoDyn
    BeamDyn (unknown version, unknown date) [not called]
    InflowWind
    AeroDyn14 (unknown version, unknown date) [not called]
    AeroDyn
    ServoDyn
    HydroDyn (unknown version, unknown date) [not called]
    SubDyn (unknown version, unknown date) [not called]
    ExtPtfm_MCKF (unknown version, unknown date) [not called]
    MAP (unknown version, unknown date) [not called]
    FEAMooring (unknown version, unknown date) [not called]
    MoorDyn (unknown version, unknown date) [not called]
    OrcaFlexInterface (unknown version, unknown date) [not called]
    IceFloe (unknown version, unknown date) [not called]
    IceDyn (unknown version, unknown date) [not called]


Modeling a land-based turbine
Description from the FAST input file: 
  FOCAL As Built Full Scale Turbine (only)

Interpolation order for input/output time histories: 2 (quadratic)
Number of correction iterations:  0


   Requested Time Steps  
  -------------------------------------------------
  Component          Time Step (s)    Subcycles (-)
  -----------------  ---------------  -------------
  FAST (glue code)    2.500000E-02
  InflowWind          2.500000E-02           1
  ElastoDyn           2.500000E-02           1
  AeroDyn             2.500000E-02           1
  ServoDyn            2.500000E-02           1
  FAST output files   2.500000E-02           1


   Requested Channels in FAST Output File(s)  
  --------------------------------------------
  Number  Name                  Units                 Generated by
  ------  --------------------  --------------------  ------------
       1  Time                  (s)                   OpenFAST
       2  Wind1VelX             (m/s)                 InflowWind
       3  Azimuth               (deg)                 ElastoDyn
       4  BldPitch1             (deg)                 ElastoDyn
       5  GenSpeed              (rpm)                 ElastoDyn
       6  RotSpeed              (rpm)                 ElastoDyn
       7  IPDefl1               (m)                   ElastoDyn
       8  OoPDefl1              (m)                   ElastoDyn
       9  RootMxb1              (kN-m)                ElastoDyn
      10  RootMyb1              (kN-m)                ElastoDyn
      11  TipDxb1               (m)                   ElastoDyn
      12  TipDyb1               (m)                   ElastoDyn
      13  NcIMUTAxs             (m/s^2)               ElastoDyn
      14  NcIMUTAys             (m/s^2)               ElastoDyn
      15  NcIMUTAzs             (m/s^2)               ElastoDyn
      16  RotTorq               (kN-m)                ElastoDyn
      17  RotThrust             (kN)                  ElastoDyn
      18  TwrBsMxt              (kN-m)                ElastoDyn
      19  TwrBsMyt              (kN-m)                ElastoDyn
      20  TwrBsMzt              (kN-m)                ElastoDyn
      21  YawBrFxp              (kN)                  ElastoDyn
      22  YawBrFyp              (kN)                  ElastoDyn
      23  YawBrFzp              (kN)                  ElastoDyn
      24  YawBrMxp              (kN-m)                ElastoDyn
      25  YawBrMyp              (kN-m)                ElastoDyn
      26  YawBrMzp              (kN-m)                ElastoDyn
      27  TwrBsFzt              (kN)                  ElastoDyn
      28  NacYaw                (deg)                 ElastoDyn
      29  PtfmSurge             (m)                   ElastoDyn
      30  PtfmSway              (m)                   ElastoDyn
      31  PtfmHeave             (m)                   ElastoDyn
      32  PtfmRoll              (deg)                 ElastoDyn
      33  PtfmPitch             (deg)                 ElastoDyn
      34  PtfmYaw               (deg)                 ElastoDyn
      35  YawBrTDxt             (m)                   ElastoDyn
      36  YawBrTDyt             (m)                   ElastoDyn
      37  RtAeroFxh             (N)                   AeroDyn
      38  RtAeroFyh             (N)                   AeroDyn
      39  RtAeroFzh             (N)                   AeroDyn
      40  RtAeroMxh             (N-m)                 AeroDyn
      41  RtAeroMyh             (N-m)                 AeroDyn
      42  RtAeroMzh             (N-m)                 AeroDyn
      43  RtVAvgxh              (m/s)                 AeroDyn
      44  RtAeroCp              (-)                   AeroDyn
      45  RtTSR                 (-)                   AeroDyn
      46  GenPwr                (kW)                  ServoDyn
      47  GenTq                 (kN-m)                ServoDyn
